     Message from routine get_command_line:
     unexpected argument # 2     :-inp

     Program PWSCF v.6.0 starts on 30May2021 at  8:45:44 

     This program is part of the open-source Quantum ESPRESSO suite
     for quantum simulation of materials; please cite
         "P. Giannozzi et al., J. Phys.:Condens. Matter 21 395502 (2009);
          URL http://www.quantum-espresso.org", 
     in publications or presentations arising from this work. More details at
     http://www.quantum-espresso.org/quote

     Parallel version (MPI), running on     1 processors
     Waiting for input...
     Reading input from standard input

     Current dimensions of program PWSCF are:
     Max number of different atomic species (ntypx) = 10
     Max number of k-points (npk) =  40000
     Max angular momentum in pseudopotentials (lmaxx) =  3

     IMPORTANT: XC functional enforced from input :
     Exchange-correlation      = HSE ( 1  4 12  4 0 0)
     EXX-fraction              =        0.25
     Any further DFT definition will be discarded
     Please, verify this is what you really want

     Message from routine setup :
     BEWARE: nonlinear core correction is not consistent with hybrid XC

     Subspace diagonalization in iterative solution of the eigenvalue problem:
     a serial algorithm will be used

     EXX: setup a grid of 16 q-points centered on each k-point
     (k+q)-points:
   0.0000000   0.0000000   0.0000000         1    1
  -0.1666667   0.1666667  -0.1666667         2    1
  -0.3333333   0.3333333  -0.3333333         3    1
   0.5000000  -0.5000000   0.5000000         4    1
   0.0000000   0.3333333   0.0000000         5    1
  -0.1666667   0.5000000  -0.1666667         6    1
   0.6666667  -0.3333333   0.6666667         7    1
   0.5000000  -0.1666667   0.5000000         8    1
   0.3333333   0.0000000   0.3333333         9    1
   0.0000000   0.6666667   0.0000000        10    1
   0.8333333  -0.1666667   0.8333333        11    1
   0.6666667   0.0000000   0.6666667        12    1
   0.0000000  -1.0000000   0.0000000        13    1
   0.6666667  -0.3333333   1.0000000        14    1
   0.5000000  -0.1666667   0.8333333        15    1
  -0.3333333  -1.0000000   0.0000000        16    1

     G-vector sticks info
     --------------------
     sticks:   dense  smooth     PW     G-vecs:    dense   smooth      PW
     Sum         595     595    187                 9577     9577    1687



     bravais-lattice index     =            2
     lattice parameter (alat)  =      10.4109  a.u.
     unit-cell volume          =     282.1019 (a.u.)^3
     number of atoms/cell      =            2
     number of atomic types    =            1
     number of electrons       =         8.00
     number of Kohn-Sham states=            8
     kinetic-energy cutoff     =      40.0000  Ry
     charge density cutoff     =     160.0000  Ry
     cutoff for Fock operator  =     160.0000  Ry
     convergence threshold     =      1.0E-08
     mixing beta               =       0.7000
     number of iterations used =            8  plain     mixing
     Exchange-correlation      = HSE ( 1  4 12  4 0 0)
     EXX-fraction              =        0.25

     celldm(1)=  10.410909  celldm(2)=   0.000000  celldm(3)=   0.000000
     celldm(4)=   0.000000  celldm(5)=   0.000000  celldm(6)=   0.000000

     crystal axes: (cart. coord. in units of alat)
               a(1) = (  -0.500000   0.000000   0.500000 )  
               a(2) = (   0.000000   0.500000   0.500000 )  
               a(3) = (  -0.500000   0.500000   0.000000 )  

     reciprocal axes: (cart. coord. in units 2 pi/alat)
               b(1) = ( -1.000000 -1.000000  1.000000 )  
               b(2) = (  1.000000  1.000000  1.000000 )  
               b(3) = ( -1.000000  1.000000 -1.000000 )  


     PseudoPot. # 1 for Si read from file:
     /home/maestro/Downloads/SSSP_efficiency_pseudos/Si.pbe-n-rrkjus_psl.1.0.0.UPF
     MD5 check sum: 0b0bb1205258b0d07b9f9672cf965d36
     Pseudo is Ultrasoft + core correction, Zval =  4.0
     Generated using "atomic" code by A. Dal Corso  v.5.1
     Using radial grid of 1141 points,  6 beta functions with: 
                l(1) =   0
                l(2) =   0
                l(3) =   1
                l(4) =   1
                l(5) =   2
                l(6) =   2
     Q(r) pseudized with 0 coefficients 


     atomic species   valence    mass     pseudopotential
        Si             4.00    28.08550     Si( 1.00)

     24 Sym. Ops. (no inversion) found
          (note: 24 additional sym.ops. were found but ignored
           their fractional translations are incommensurate with FFT grid)


   Cartesian axes

     site n.     atom                  positions (alat units)
         1           Si  tau(   1) = (   0.0000000   0.0000000   0.0000000  )
         2           Si  tau(   2) = (   0.2500000   0.2500000   0.2500000  )

     number of k points=    16
                       cart. coord. in units 2pi/alat
        k(    1) = (   0.0000000   0.0000000   0.0000000), wk =   0.0092593
        k(    2) = (  -0.1666667   0.1666667  -0.1666667), wk =   0.0740741
        k(    3) = (  -0.3333333   0.3333333  -0.3333333), wk =   0.0740741
        k(    4) = (   0.5000000  -0.5000000   0.5000000), wk =   0.0370370
        k(    5) = (   0.0000000   0.3333333   0.0000000), wk =   0.0555556
        k(    6) = (  -0.1666667   0.5000000  -0.1666667), wk =   0.2222222
        k(    7) = (   0.6666667  -0.3333333   0.6666667), wk =   0.2222222
        k(    8) = (   0.5000000  -0.1666667   0.5000000), wk =   0.2222222
        k(    9) = (   0.3333333   0.0000000   0.3333333), wk =   0.1111111
        k(   10) = (   0.0000000   0.6666667   0.0000000), wk =   0.0555556
        k(   11) = (   0.8333333  -0.1666667   0.8333333), wk =   0.2222222
        k(   12) = (   0.6666667  -0.0000000   0.6666667), wk =   0.1111111
        k(   13) = (   0.0000000  -1.0000000   0.0000000), wk =   0.0277778
        k(   14) = (   0.6666667  -0.3333333   1.0000000), wk =   0.2222222
        k(   15) = (   0.5000000  -0.1666667   0.8333333), wk =   0.2222222
        k(   16) = (  -0.3333333  -1.0000000   0.0000000), wk =   0.1111111

     Dense  grid:     9577 G-vectors     FFT dimensions: (  30,  30,  30)

     Estimated max dynamical RAM per process >     311.35Mb

     Check: negative/imaginary core charge=   -0.000003    0.000000

     Initial potential from superposition of free atoms

     starting charge    7.99888, renormalised to    8.00000
     Starting wfc are    8 randomized atomic wfcs

     total cpu time spent up to now is        2.0 secs

     per-process dynamical memory:    12.2 Mb

     Self-consistent Calculation

     iteration #  1     ecut=    40.00 Ry     beta=0.70
     Davidson diagonalization with overlap
     ethr =  1.00E-02,  avg # of iterations =  3.4

     Threshold (ethr) on eigenvalues was too large:
     Diagonalizing with lowered threshold

     Davidson diagonalization with overlap
     ethr =  6.74E-04,  avg # of iterations =  1.6

     total cpu time spent up to now is        4.2 secs

     total energy              =     -22.83592842 Ry
     Harris-Foulkes estimate   =     -22.84814071 Ry
     estimated scf accuracy    <       0.05351609 Ry

     iteration #  2     ecut=    40.00 Ry     beta=0.70
     Davidson diagonalization with overlap
     ethr =  6.69E-04,  avg # of iterations =  1.0

     total cpu time spent up to now is        5.5 secs

     total energy              =     -22.83790734 Ry
     Harris-Foulkes estimate   =     -22.83802256 Ry
     estimated scf accuracy    <       0.00222414 Ry

     iteration #  3     ecut=    40.00 Ry     beta=0.70
     Davidson diagonalization with overlap
     ethr =  2.78E-05,  avg # of iterations =  2.1

     total cpu time spent up to now is        6.7 secs

     total energy              =     -22.83801020 Ry
     Harris-Foulkes estimate   =     -22.83800587 Ry
     estimated scf accuracy    <       0.00004016 Ry

     iteration #  4     ecut=    40.00 Ry     beta=0.70
     Davidson diagonalization with overlap
     ethr =  5.02E-07,  avg # of iterations =  3.1

     total cpu time spent up to now is        8.1 secs

     total energy              =     -22.83802262 Ry
     Harris-Foulkes estimate   =     -22.83802265 Ry
     estimated scf accuracy    <       0.00000064 Ry

     iteration #  5     ecut=    40.00 Ry     beta=0.70
     Davidson diagonalization with overlap
     ethr =  8.06E-09,  avg # of iterations =  2.2

     total cpu time spent up to now is        9.3 secs

     total energy              =     -22.83802278 Ry
     Harris-Foulkes estimate   =     -22.83802280 Ry
     estimated scf accuracy    <       0.00000007 Ry

     iteration #  6     ecut=    40.00 Ry     beta=0.70
     Davidson diagonalization with overlap
     ethr =  9.00E-10,  avg # of iterations =  1.4

     total cpu time spent up to now is       10.0 secs

     End of self-consistent calculation

          k = 0.0000 0.0000 0.0000 (  1243 PWs)   bands (ev):

    -5.9037   5.7682   5.7682   5.7682   8.3096   8.3096   8.3096   8.6416

          k =-0.1667 0.1667-0.1667 (  1215 PWs)   bands (ev):

    -5.5560   3.4154   5.3352   5.3352   7.9727   8.9341   8.9341  10.8582

          k =-0.3333 0.3333-0.3333 (  1218 PWs)   bands (ev):

    -4.5816   0.5556   4.8002   4.8002   7.3784   9.2623   9.2623  13.4466

          k = 0.5000-0.5000 0.5000 (  1194 PWs)   bands (ev):

    -3.6794  -1.0072   4.6061   4.6061   7.1529   9.1228   9.1228  13.4426

          k = 0.0000 0.3333 0.0000 (  1219 PWs)   bands (ev):

    -5.4374   3.6901   4.6279   4.6279   7.4863   9.8628  10.0198  10.0198

          k =-0.1667 0.5000-0.1667 (  1218 PWs)   bands (ev):

    -4.6536   1.3901   3.8358   4.0923   7.7354   9.6929  10.2572  10.7542

          k = 0.6667-0.3333 0.6667 (  1201 PWs)   bands (ev):

    -3.5198  -0.6821   3.0771   4.0583   7.7981   9.7700  10.3510  12.0730

          k = 0.5000-0.1667 0.5000 (  1192 PWs)   bands (ev):

    -3.8840  -0.1122   2.8272   4.5155   8.1572   9.8091   9.9604  12.8543

          k = 0.3333 0.0000 0.3333 (  1209 PWs)   bands (ev):

    -4.9902   2.0831   3.4616   5.2175   8.6687   9.2747   9.5420  11.2570

          k = 0.0000 0.6667 0.0000 (  1218 PWs)   bands (ev):

    -4.0701   0.7905   3.4462   3.4462   6.5546   7.8161  12.8422  12.8422

          k = 0.8333-0.1667 0.8333 (  1207 PWs)   bands (ev):

    -2.9546  -0.7088   2.2957   3.3129   6.8944   8.4932  13.0100  13.0662

          k = 0.6667-0.0000 0.6667 (  1196 PWs)   bands (ev):

    -2.7771  -0.8958   1.5541   3.7368   7.3725  11.5235  12.0952  12.6254

          k = 0.0000-1.0000 0.0000 (  1186 PWs)   bands (ev):

    -1.9145  -1.9145   3.0258   3.0258   6.5594   6.5596  15.5042  15.5042

          k = 0.6667-0.3333 1.0000 (  1206 PWs)   bands (ev):

    -3.7037   0.1884   2.3519   3.5713   8.6014   9.4857   9.8848  12.6615

          k = 0.5000-0.1667 0.8333 (  1198 PWs)   bands (ev):

    -2.7686  -0.9559   1.9233   3.1301   9.1435   9.2374  11.7781  12.1156

          k =-0.3333-1.0000 0.0000 (  1200 PWs)   bands (ev):

    -1.8079  -1.8078   2.2870   2.2871   8.5197   8.5199  12.3719  12.3721

     highest occupied, lowest unoccupied level (ev):     5.7682    6.5546

!    total energy              =     -22.83802279 Ry
     Harris-Foulkes estimate   =     -22.83802279 Ry
     estimated scf accuracy    <          9.1E-09 Ry

     convergence has been achieved in   6 iterations

     EXX: now go back to refine exchange calculation

     total cpu time spent up to now is       21.5 secs

     per-process dynamical memory:    42.5 Mb

     Self-consistent Calculation

     iteration #  1     ecut=    40.00 Ry     beta=0.70
     Davidson diagonalization with overlap
     ethr =  9.00E-10,  avg # of iterations =  6.4

     total cpu time spent up to now is      217.5 secs

     total energy              =     -21.23986614 Ry
     Harris-Foulkes estimate   =     -22.11861754 Ry
     estimated scf accuracy    <       0.00201328 Ry

     iteration #  2     ecut=    40.00 Ry     beta=0.70
     Davidson diagonalization with overlap
     ethr =  2.52E-05,  avg # of iterations =  3.1

     total cpu time spent up to now is      331.2 secs

     total energy              =     -21.29001220 Ry
     Harris-Foulkes estimate   =     -22.16762245 Ry
     estimated scf accuracy    <       0.00012834 Ry

     iteration #  3     ecut=    40.00 Ry     beta=0.70
     Davidson diagonalization with overlap
     ethr =  1.60E-06,  avg # of iterations =  1.2

     total cpu time spent up to now is      401.2 secs

     total energy              =     -21.29001643 Ry
     Harris-Foulkes estimate   =     -22.16756617 Ry
     estimated scf accuracy    <       0.00001094 Ry

     iteration #  4     ecut=    40.00 Ry     beta=0.70
     Davidson diagonalization with overlap
     ethr =  1.37E-07,  avg # of iterations =  1.1

     total cpu time spent up to now is      477.8 secs

     total energy              =     -21.29001750 Ry
     Harris-Foulkes estimate   =     -22.16756251 Ry
     estimated scf accuracy    <       0.00000035 Ry

     iteration #  5     ecut=    40.00 Ry     beta=0.70
     Davidson diagonalization with overlap
     ethr =  4.39E-09,  avg # of iterations =  2.9

     total cpu time spent up to now is      548.0 secs

     total energy              =     -21.29001768 Ry
     Harris-Foulkes estimate   =     -22.16756266 Ry
     estimated scf accuracy    <       0.00000005 Ry

     iteration #  6     ecut=    40.00 Ry     beta=0.70
     Davidson diagonalization with overlap
     ethr =  5.87E-10,  avg # of iterations =  1.1

     total cpu time spent up to now is      610.6 secs

     End of self-consistent calculation

          k = 0.0000 0.0000 0.0000 (  1243 PWs)   bands (ev):

    -7.0764   4.7781   4.7781   4.7781   9.2852   9.2852   9.2852   9.8620

          k =-0.1667 0.1667-0.1667 (  1215 PWs)   bands (ev):

    -6.6784   2.4641   4.3717   4.3717   9.0164   9.8566   9.8566  12.0929

          k =-0.3333 0.3333-0.3333 (  1218 PWs)   bands (ev):

    -5.6669  -0.4409   3.8457   3.8457   8.4079  10.1335  10.1335  14.4322

          k = 0.5000-0.5000 0.5000 (  1194 PWs)   bands (ev):

    -4.7448  -2.0298   3.6452   3.6452   8.1786   9.9726   9.9726  14.2139

          k = 0.0000 0.3333 0.0000 (  1219 PWs)   bands (ev):

    -6.5477   2.7180   3.6887   3.6887   8.3452  10.8815  11.0099  11.0099

          k =-0.1667 0.5000-0.1667 (  1218 PWs)   bands (ev):

    -5.7196   0.4421   2.8827   3.1693   8.5817  10.5876  11.1240  11.6730

          k = 0.6667-0.3333 0.6667 (  1201 PWs)   bands (ev):

    -4.5507  -1.6643   2.1481   3.1219   8.6661  10.7129  11.1842  12.8766

          k = 0.5000-0.1667 0.5000 (  1192 PWs)   bands (ev):

    -4.9248  -1.0812   1.9037   3.5501   9.0883  10.7183  10.7915  13.8229

          k = 0.3333 0.0000 0.3333 (  1209 PWs)   bands (ev):

    -6.0724   1.1696   2.5228   4.2042   9.6938  10.1543  10.4805  12.1972

          k = 0.0000 0.6667 0.0000 (  1218 PWs)   bands (ev):

    -5.1365  -0.2061   2.4959   2.4959   7.3381   8.5780  13.8534  13.8534

          k = 0.8333-0.1667 0.8333 (  1207 PWs)   bands (ev):

    -3.9726  -1.6861   1.3540   2.3735   7.6749   9.2285  13.9432  14.0400

          k = 0.6667-0.0000 0.6667 (  1196 PWs)   bands (ev):

    -3.7799  -1.8668   0.6089   2.7964   8.1845  12.2744  12.9495  13.6312

          k = 0.0000-1.0000 0.0000 (  1186 PWs)   bands (ev):

    -2.9429  -2.9422   2.0685   2.0685   7.3111   7.3115  16.5790  16.5790

          k = 0.6667-0.3333 1.0000 (  1206 PWs)   bands (ev):

    -4.7220  -0.7452   1.4173   2.6372   9.4122  10.2181  10.7898  13.6602

          k = 0.5000-0.1667 0.8333 (  1198 PWs)   bands (ev):

    -3.7538  -1.9088   0.9933   2.2079   9.8884  10.1036  12.5679  12.9831

          k =-0.3333-1.0000 0.0000 (  1200 PWs)   bands (ev):

    -2.7744  -2.7737   1.3610   1.3610   9.2723   9.2727  13.2403  13.2406

     highest occupied, lowest unoccupied level (ev):     4.7781    7.3111

!    total energy              =     -21.29001768 Ry
     Harris-Foulkes estimate   =     -22.16756264 Ry
     estimated scf accuracy    <          5.8E-09 Ry

     convergence has been achieved in   6 iterations
