     Message from routine get_command_line:
     unexpected argument # 2     :-inp

     Program PWSCF v.6.0 starts on 30May2021 at  8:57:40 

     This program is part of the open-source Quantum ESPRESSO suite
     for quantum simulation of materials; please cite
         "P. Giannozzi et al., J. Phys.:Condens. Matter 21 395502 (2009);
          URL http://www.quantum-espresso.org", 
     in publications or presentations arising from this work. More details at
     http://www.quantum-espresso.org/quote

     Parallel version (MPI), running on     1 processors
     Waiting for input...
     Reading input from standard input

     Current dimensions of program PWSCF are:
     Max number of different atomic species (ntypx) = 10
     Max number of k-points (npk) =  40000
     Max angular momentum in pseudopotentials (lmaxx) =  3

     IMPORTANT: XC functional enforced from input :
     Exchange-correlation      = HSE ( 1  4 12  4 0 0)
     EXX-fraction              =        0.25
     Any further DFT definition will be discarded
     Please, verify this is what you really want

     Message from routine setup :
     BEWARE: nonlinear core correction is not consistent with hybrid XC

     Subspace diagonalization in iterative solution of the eigenvalue problem:
     a serial algorithm will be used

     EXX: setup a grid of 29 q-points centered on each k-point
     (k+q)-points:
   0.0000000   0.0000000   0.0000000         1    1
  -0.1250000   0.1250000  -0.1250000         2    1
  -0.2500000   0.2500000  -0.2500000         3    1
  -0.3750000   0.3750000  -0.3750000         4    1
   0.5000000  -0.5000000   0.5000000         5    1
   0.0000000   0.2500000   0.0000000         6    1
  -0.1250000   0.3750000  -0.1250000         7    1
  -0.2500000   0.5000000  -0.2500000         8    1
   0.6250000  -0.3750000   0.6250000         9    1
   0.5000000  -0.2500000   0.5000000        10    1
   0.3750000  -0.1250000   0.3750000        11    1
   0.2500000   0.0000000   0.2500000        12    1
   0.0000000   0.5000000   0.0000000        13    1
  -0.1250000   0.6250000  -0.1250000        14    1
   0.7500000  -0.2500000   0.7500000        15    1
   0.6250000  -0.1250000   0.6250000        16    1
   0.5000000   0.0000000   0.5000000        17    1
   0.0000000   0.7500000   0.0000000        18    1
   0.8750000  -0.1250000   0.8750000        19    1
   0.7500000   0.0000000   0.7500000        20    1
   0.0000000  -1.0000000   0.0000000        21    1
  -0.2500000   0.5000000   0.0000000        22    1
   0.6250000  -0.3750000   0.8750000        23    1
   0.5000000  -0.2500000   0.7500000        24    1
   0.7500000  -0.2500000   1.0000000        25    1
   0.6250000  -0.1250000   0.8750000        26    1
   0.5000000   0.0000000   0.7500000        27    1
  -0.2500000  -1.0000000   0.0000000        28    1
  -0.5000000  -1.0000000   0.0000000        29    1

     G-vector sticks info
     --------------------
     sticks:   dense  smooth     PW     G-vecs:    dense   smooth      PW
     Sum         595     595    187                 9577     9577    1687



     bravais-lattice index     =            2
     lattice parameter (alat)  =      10.4109  a.u.
     unit-cell volume          =     282.1019 (a.u.)^3
     number of atoms/cell      =            2
     number of atomic types    =            1
     number of electrons       =         8.00
     number of Kohn-Sham states=            8
     kinetic-energy cutoff     =      40.0000  Ry
     charge density cutoff     =     160.0000  Ry
     cutoff for Fock operator  =     160.0000  Ry
     convergence threshold     =      1.0E-08
     mixing beta               =       0.7000
     number of iterations used =            8  plain     mixing
     Exchange-correlation      = HSE ( 1  4 12  4 0 0)
     EXX-fraction              =        0.25

     celldm(1)=  10.410909  celldm(2)=   0.000000  celldm(3)=   0.000000
     celldm(4)=   0.000000  celldm(5)=   0.000000  celldm(6)=   0.000000

     crystal axes: (cart. coord. in units of alat)
               a(1) = (  -0.500000   0.000000   0.500000 )  
               a(2) = (   0.000000   0.500000   0.500000 )  
               a(3) = (  -0.500000   0.500000   0.000000 )  

     reciprocal axes: (cart. coord. in units 2 pi/alat)
               b(1) = ( -1.000000 -1.000000  1.000000 )  
               b(2) = (  1.000000  1.000000  1.000000 )  
               b(3) = ( -1.000000  1.000000 -1.000000 )  


     PseudoPot. # 1 for Si read from file:
     /home/maestro/Downloads/SSSP_efficiency_pseudos/Si.pbe-n-rrkjus_psl.1.0.0.UPF
     MD5 check sum: 0b0bb1205258b0d07b9f9672cf965d36
     Pseudo is Ultrasoft + core correction, Zval =  4.0
     Generated using "atomic" code by A. Dal Corso  v.5.1
     Using radial grid of 1141 points,  6 beta functions with: 
                l(1) =   0
                l(2) =   0
                l(3) =   1
                l(4) =   1
                l(5) =   2
                l(6) =   2
     Q(r) pseudized with 0 coefficients 


     atomic species   valence    mass     pseudopotential
        Si             4.00    28.08550     Si( 1.00)

     24 Sym. Ops. (no inversion) found
          (note: 24 additional sym.ops. were found but ignored
           their fractional translations are incommensurate with FFT grid)


   Cartesian axes

     site n.     atom                  positions (alat units)
         1           Si  tau(   1) = (   0.0000000   0.0000000   0.0000000  )
         2           Si  tau(   2) = (   0.2500000   0.2500000   0.2500000  )

     number of k points=    29
                       cart. coord. in units 2pi/alat
        k(    1) = (   0.0000000   0.0000000   0.0000000), wk =   0.0039062
        k(    2) = (  -0.1250000   0.1250000  -0.1250000), wk =   0.0312500
        k(    3) = (  -0.2500000   0.2500000  -0.2500000), wk =   0.0312500
        k(    4) = (  -0.3750000   0.3750000  -0.3750000), wk =   0.0312500
        k(    5) = (   0.5000000  -0.5000000   0.5000000), wk =   0.0156250
        k(    6) = (   0.0000000   0.2500000   0.0000000), wk =   0.0234375
        k(    7) = (  -0.1250000   0.3750000  -0.1250000), wk =   0.0937500
        k(    8) = (  -0.2500000   0.5000000  -0.2500000), wk =   0.0937500
        k(    9) = (   0.6250000  -0.3750000   0.6250000), wk =   0.0937500
        k(   10) = (   0.5000000  -0.2500000   0.5000000), wk =   0.0937500
        k(   11) = (   0.3750000  -0.1250000   0.3750000), wk =   0.0937500
        k(   12) = (   0.2500000   0.0000000   0.2500000), wk =   0.0468750
        k(   13) = (   0.0000000   0.5000000   0.0000000), wk =   0.0234375
        k(   14) = (  -0.1250000   0.6250000  -0.1250000), wk =   0.0937500
        k(   15) = (   0.7500000  -0.2500000   0.7500000), wk =   0.0937500
        k(   16) = (   0.6250000  -0.1250000   0.6250000), wk =   0.0937500
        k(   17) = (   0.5000000   0.0000000   0.5000000), wk =   0.0468750
        k(   18) = (   0.0000000   0.7500000   0.0000000), wk =   0.0234375
        k(   19) = (   0.8750000  -0.1250000   0.8750000), wk =   0.0937500
        k(   20) = (   0.7500000   0.0000000   0.7500000), wk =   0.0468750
        k(   21) = (   0.0000000  -1.0000000   0.0000000), wk =   0.0117188
        k(   22) = (  -0.2500000   0.5000000   0.0000000), wk =   0.0937500
        k(   23) = (   0.6250000  -0.3750000   0.8750000), wk =   0.1875000
        k(   24) = (   0.5000000  -0.2500000   0.7500000), wk =   0.0937500
        k(   25) = (   0.7500000  -0.2500000   1.0000000), wk =   0.0937500
        k(   26) = (   0.6250000  -0.1250000   0.8750000), wk =   0.1875000
        k(   27) = (   0.5000000   0.0000000   0.7500000), wk =   0.0937500
        k(   28) = (  -0.2500000  -1.0000000   0.0000000), wk =   0.0468750
        k(   29) = (  -0.5000000  -1.0000000   0.0000000), wk =   0.0234375

     Dense  grid:     9577 G-vectors     FFT dimensions: (  30,  30,  30)

     Estimated max dynamical RAM per process >     558.05Mb

     Check: negative/imaginary core charge=   -0.000003    0.000000

     Initial potential from superposition of free atoms

     starting charge    7.99888, renormalised to    8.00000
     Starting wfc are    8 randomized atomic wfcs

     total cpu time spent up to now is        2.2 secs

     per-process dynamical memory:    14.3 Mb

     Self-consistent Calculation

     iteration #  1     ecut=    40.00 Ry     beta=0.70
     Davidson diagonalization with overlap
     ethr =  1.00E-02,  avg # of iterations =  3.6

     Threshold (ethr) on eigenvalues was too large:
     Diagonalizing with lowered threshold

     Davidson diagonalization with overlap
     ethr =  6.63E-04,  avg # of iterations =  1.2

     total cpu time spent up to now is        6.2 secs

     total energy              =     -22.83735145 Ry
     Harris-Foulkes estimate   =     -22.84930463 Ry
     estimated scf accuracy    <       0.05258945 Ry

     iteration #  2     ecut=    40.00 Ry     beta=0.70
     Davidson diagonalization with overlap
     ethr =  6.57E-04,  avg # of iterations =  1.0

     total cpu time spent up to now is        7.8 secs

     total energy              =     -22.83932097 Ry
     Harris-Foulkes estimate   =     -22.83943769 Ry
     estimated scf accuracy    <       0.00218404 Ry

     iteration #  3     ecut=    40.00 Ry     beta=0.70
     Davidson diagonalization with overlap
     ethr =  2.73E-05,  avg # of iterations =  2.7

     total cpu time spent up to now is       10.2 secs

     total energy              =     -22.83944219 Ry
     Harris-Foulkes estimate   =     -22.83943937 Ry
     estimated scf accuracy    <       0.00004006 Ry

     iteration #  4     ecut=    40.00 Ry     beta=0.70
     Davidson diagonalization with overlap
     ethr =  5.01E-07,  avg # of iterations =  3.1

     total cpu time spent up to now is       11.9 secs

     total energy              =     -22.83945329 Ry
     Harris-Foulkes estimate   =     -22.83945316 Ry
     estimated scf accuracy    <       0.00000023 Ry

     iteration #  5     ecut=    40.00 Ry     beta=0.70
     Davidson diagonalization with overlap
     ethr =  2.86E-09,  avg # of iterations =  2.7

     total cpu time spent up to now is       13.7 secs

     total energy              =     -22.83945345 Ry
     Harris-Foulkes estimate   =     -22.83945344 Ry
     estimated scf accuracy    <       0.00000001 Ry

     iteration #  6     ecut=    40.00 Ry     beta=0.70
     Davidson diagonalization with overlap
     ethr =  1.84E-10,  avg # of iterations =  1.8

     total cpu time spent up to now is       14.8 secs

     End of self-consistent calculation

          k = 0.0000 0.0000 0.0000 (  1243 PWs)   bands (ev):

    -5.9087   5.7621   5.7621   5.7621   8.3060   8.3060   8.3060   8.6350

          k =-0.1250 0.1250-0.1250 (  1218 PWs)   bands (ev):

    -5.7121   4.1731   5.4852   5.4852   8.1296   8.7132   8.7132  10.1040

          k =-0.2500 0.2500-0.2500 (  1215 PWs)   bands (ev):

    -5.1395   1.9095   5.0294   5.0294   7.6399   9.2318   9.2318  12.3283

          k =-0.3750 0.3750-0.3750 (  1203 PWs)   bands (ev):

    -4.2851  -0.0387   4.7102   4.7102   7.2757   9.2148   9.2148  13.5478

          k = 0.5000-0.5000 0.5000 (  1194 PWs)   bands (ev):

    -3.6848  -1.0120   4.6006   4.6006   7.1478   9.1195   9.1195  13.4382

          k = 0.0000 0.2500 0.0000 (  1219 PWs)   bands (ev):

    -5.6458   4.3843   4.9937   4.9937   7.7768   9.3970   9.3970   9.7779

          k =-0.1250 0.3750-0.1250 (  1217 PWs)   bands (ev):

    -5.1948   2.5668   4.4999   4.5512   7.9002   9.2890  10.1445  10.4860

          k =-0.2500 0.5000-0.2500 (  1205 PWs)   bands (ev):

    -4.4135   0.5842   3.9754   4.2376   7.9635   9.2996  10.1782  11.1745

          k = 0.6250-0.3750 0.6250 (  1204 PWs)   bands (ev):

    -3.5976  -0.8126   3.5467   4.2569   7.8847   9.2246   9.8469  12.9975

          k = 0.5000-0.2500 0.5000 (  1199 PWs)   bands (ev):

    -3.8275  -0.4609   3.3781   4.5392   8.0161   9.3553   9.6189  13.4910

          k = 0.3750-0.1250 0.3750 (  1209 PWs)   bands (ev):

    -4.7069   1.2173   3.5362   5.0108   8.3428   9.4023   9.5761  11.8769

          k = 0.2500 0.0000 0.2500 (  1217 PWs)   bands (ev):

    -5.3886   3.0895   4.2094   5.4741   8.6402   8.8499   9.0629  11.0593

          k = 0.0000 0.5000 0.0000 (  1198 PWs)   bands (ev):

    -4.8668   2.2342   3.9510   3.9510   6.9327   8.8952  11.3793  11.3793

          k =-0.1250 0.6250-0.1250 (  1216 PWs)   bands (ev):

    -4.1845   0.8644   3.1997   3.6426   7.1516   8.6712  11.5756  11.9030

          k = 0.7500-0.2500 0.7500 (  1209 PWs)   bands (ev):

    -3.3014  -0.5097   2.3675   3.6433   7.3240  10.1763  11.3029  11.5940

          k = 0.6250-0.1250 0.6250 (  1198 PWs)   bands (ev):

    -3.1114  -0.7511   1.9313   3.9475   7.6265  11.0956  11.1627  12.5674

          k = 0.5000 0.0000 0.5000 (  1203 PWs)   bands (ev):

    -3.9464   0.3560   2.1726   4.4819   8.1813  10.4628  10.7970  11.6863

          k = 0.0000 0.7500 0.0000 (  1206 PWs)   bands (ev):

    -3.6036   0.0754   3.2586   3.2586   6.4472   7.3740  13.5873  13.5873

          k = 0.8750-0.1250 0.8750 (  1205 PWs)   bands (ev):

    -2.7430  -0.9720   2.4770   3.1843   6.7292   7.7646  13.8360  13.8561

          k = 0.7500 0.0000 0.7500 (  1202 PWs)   bands (ev):

    -2.3353  -1.3457   1.6588   3.4313   7.0258   9.8573  13.0435  13.5804

          k = 0.0000-1.0000 0.0000 (  1186 PWs)   bands (ev):

    -1.9200  -1.9199   3.0210   3.0210   6.5557   6.5558  15.4992  15.4992

          k =-0.2500 0.5000 0.0000 (  1216 PWs)   bands (ev):

    -4.6298   1.5071   3.1671   4.3861   8.1984   9.4976   9.9803  11.1383

          k = 0.6250-0.3750 0.8750 (  1205 PWs)   bands (ev):

    -3.7799   0.0203   2.5671   3.9123   8.6079   9.2646  10.6953  11.5822

          k = 0.5000-0.2500 0.7500 (  1198 PWs)   bands (ev):

    -3.1643  -0.8734   2.4332   3.6958   8.7346   8.9244  11.5383  12.7836

          k = 0.7500-0.2500 1.0000 (  1210 PWs)   bands (ev):

    -3.4157  -0.1360   2.5443   3.1250   7.7255   8.4325  11.3734  13.5404

          k = 0.6250-0.1250 0.8750 (  1203 PWs)   bands (ev):

    -2.5839  -1.0646   1.8824   2.9339   8.1629  10.0198  10.9046  13.0172

          k = 0.5000 0.0000 0.7500 (  1203 PWs)   bands (ev):

    -2.9203  -0.7123   1.7245   3.2913   8.6206  10.2452  10.8759  12.6534

          k =-0.2500-1.0000 0.0000 (  1196 PWs)   bands (ev):

    -1.8505  -1.8504   2.4959   2.4959   7.7632   7.7633  13.4109  13.4111

          k =-0.5000-1.0000 0.0000 (  1216 PWs)   bands (ev):

    -1.7747  -1.7746   2.0884   2.0884  10.0386  10.0386  10.6116  10.6118

     highest occupied, lowest unoccupied level (ev):     5.7621    6.4472

!    total energy              =     -22.83945345 Ry
     Harris-Foulkes estimate   =     -22.83945345 Ry
     estimated scf accuracy    <          2.0E-09 Ry

     convergence has been achieved in   6 iterations

     EXX: now go back to refine exchange calculation

     total cpu time spent up to now is       32.0 secs

     per-process dynamical memory:    66.6 Mb

     Self-consistent Calculation

     iteration #  1     ecut=    40.00 Ry     beta=0.70
     Davidson diagonalization with overlap
     ethr =  1.84E-10,  avg # of iterations =  7.3

     total cpu time spent up to now is      385.5 secs

     total energy              =     -21.24098485 Ry
     Harris-Foulkes estimate   =     -22.11921482 Ry
     estimated scf accuracy    <       0.00200944 Ry

     iteration #  2     ecut=    40.00 Ry     beta=0.70
     Davidson diagonalization with overlap
     ethr =  2.51E-05,  avg # of iterations =  3.1

     total cpu time spent up to now is      574.1 secs

     total energy              =     -21.29135597 Ry
     Harris-Foulkes estimate   =     -22.16844634 Ry
     estimated scf accuracy    <       0.00012782 Ry

     iteration #  3     ecut=    40.00 Ry     beta=0.70
     Davidson diagonalization with overlap
     ethr =  1.60E-06,  avg # of iterations =  1.3

     total cpu time spent up to now is      709.7 secs

     total energy              =     -21.29136030 Ry
     Harris-Foulkes estimate   =     -22.16839042 Ry
     estimated scf accuracy    <       0.00001091 Ry

     iteration #  4     ecut=    40.00 Ry     beta=0.70
     Davidson diagonalization with overlap
     ethr =  1.36E-07,  avg # of iterations =  1.0

     total cpu time spent up to now is      824.9 secs

     total energy              =     -21.29136131 Ry
     Harris-Foulkes estimate   =     -22.16838679 Ry
     estimated scf accuracy    <       0.00000039 Ry

     iteration #  5     ecut=    40.00 Ry     beta=0.70
     Davidson diagonalization with overlap
     ethr =  4.84E-09,  avg # of iterations =  2.9

     total cpu time spent up to now is      982.8 secs

     total energy              =     -21.29136149 Ry
     Harris-Foulkes estimate   =     -22.16838694 Ry
     estimated scf accuracy    <       0.00000005 Ry

     iteration #  6     ecut=    40.00 Ry     beta=0.70
