     Message from routine get_command_line:
     unexpected argument # 2     :-inp

     Program PWSCF v.6.0 starts on 30May2021 at  8:24:59 

     This program is part of the open-source Quantum ESPRESSO suite
     for quantum simulation of materials; please cite
         "P. Giannozzi et al., J. Phys.:Condens. Matter 21 395502 (2009);
          URL http://www.quantum-espresso.org", 
     in publications or presentations arising from this work. More details at
     http://www.quantum-espresso.org/quote

     Parallel version (MPI), running on     1 processors
     Waiting for input...
     Reading input from standard input

     Current dimensions of program PWSCF are:
     Max number of different atomic species (ntypx) = 10
     Max number of k-points (npk) =  40000
     Max angular momentum in pseudopotentials (lmaxx) =  3

     Subspace diagonalization in iterative solution of the eigenvalue problem:
     a serial algorithm will be used


     G-vector sticks info
     --------------------
     sticks:   dense  smooth     PW     G-vecs:    dense   smooth      PW
     Sum         595     595    199                 9577     9577    1759



     bravais-lattice index     =            2
     lattice parameter (alat)  =      10.4109  a.u.
     unit-cell volume          =     282.1019 (a.u.)^3
     number of atoms/cell      =            2
     number of atomic types    =            1
     number of electrons       =         8.00
     number of Kohn-Sham states=            8
     kinetic-energy cutoff     =      40.0000  Ry
     charge density cutoff     =     160.0000  Ry
     convergence threshold     =      1.0E-08
     mixing beta               =       0.7000
     number of iterations used =            8  plain     mixing
     Exchange-correlation      = PBE ( 1  4  3  4 0 0)

     celldm(1)=  10.410909  celldm(2)=   0.000000  celldm(3)=   0.000000
     celldm(4)=   0.000000  celldm(5)=   0.000000  celldm(6)=   0.000000

     crystal axes: (cart. coord. in units of alat)
               a(1) = (  -0.500000   0.000000   0.500000 )  
               a(2) = (   0.000000   0.500000   0.500000 )  
               a(3) = (  -0.500000   0.500000   0.000000 )  

     reciprocal axes: (cart. coord. in units 2 pi/alat)
               b(1) = ( -1.000000 -1.000000  1.000000 )  
               b(2) = (  1.000000  1.000000  1.000000 )  
               b(3) = ( -1.000000  1.000000 -1.000000 )  


     PseudoPot. # 1 for Si read from file:
     /home/maestro/Downloads/SSSP_efficiency_pseudos/Si.pbe-n-rrkjus_psl.1.0.0.UPF
     MD5 check sum: 0b0bb1205258b0d07b9f9672cf965d36
     Pseudo is Ultrasoft + core correction, Zval =  4.0
     Generated using "atomic" code by A. Dal Corso  v.5.1
     Using radial grid of 1141 points,  6 beta functions with: 
                l(1) =   0
                l(2) =   0
                l(3) =   1
                l(4) =   1
                l(5) =   2
                l(6) =   2
     Q(r) pseudized with 0 coefficients 


     atomic species   valence    mass     pseudopotential
        Si             4.00    28.08550     Si( 1.00)

     24 Sym. Ops. (no inversion) found
          (note: 24 additional sym.ops. were found but ignored
           their fractional translations are incommensurate with FFT grid)


   Cartesian axes

     site n.     atom                  positions (alat units)
         1           Si  tau(   1) = (   0.0000000   0.0000000   0.0000000  )
         2           Si  tau(   2) = (   0.2500000   0.2500000   0.2500000  )

     number of k points=   145

     Number of k-points >= 100: set verbosity='high' to print them.

     Dense  grid:     9577 G-vectors     FFT dimensions: (  30,  30,  30)

     Estimated max dynamical RAM per process >      29.04Mb

     Check: negative/imaginary core charge=   -0.000003    0.000000

     Initial potential from superposition of free atoms

     starting charge    7.99888, renormalised to    8.00000
     Starting wfc are    8 randomized atomic wfcs

     total cpu time spent up to now is        5.7 secs

     per-process dynamical memory:    32.8 Mb

     Self-consistent Calculation

     iteration #  1     ecut=    40.00 Ry     beta=0.70
     Davidson diagonalization with overlap
     ethr =  1.00E-02,  avg # of iterations =  3.7

     Threshold (ethr) on eigenvalues was too large:
     Diagonalizing with lowered threshold

     Davidson diagonalization with overlap
     ethr =  6.62E-04,  avg # of iterations =  1.1

     total cpu time spent up to now is       22.4 secs

     total energy              =     -22.83765835 Ry
     Harris-Foulkes estimate   =     -22.84956277 Ry
     estimated scf accuracy    <       0.05238953 Ry

     iteration #  2     ecut=    40.00 Ry     beta=0.70
     Davidson diagonalization with overlap
     ethr =  6.55E-04,  avg # of iterations =  1.0

     total cpu time spent up to now is       28.2 secs

     total energy              =     -22.83960957 Ry
     Harris-Foulkes estimate   =     -22.83972562 Ry
     estimated scf accuracy    <       0.00216739 Ry

     iteration #  3     ecut=    40.00 Ry     beta=0.70
     Davidson diagonalization with overlap
     ethr =  2.71E-05,  avg # of iterations =  2.8

     total cpu time spent up to now is       34.7 secs

     total energy              =     -22.83972221 Ry
     Harris-Foulkes estimate   =     -22.83971944 Ry
     estimated scf accuracy    <       0.00003994 Ry

     iteration #  4     ecut=    40.00 Ry     beta=0.70
     Davidson diagonalization with overlap
     ethr =  4.99E-07,  avg # of iterations =  3.0

     total cpu time spent up to now is       44.8 secs

     total energy              =     -22.83973534 Ry
     Harris-Foulkes estimate   =     -22.83973525 Ry
     estimated scf accuracy    <       0.00000034 Ry

     iteration #  5     ecut=    40.00 Ry     beta=0.70
     Davidson diagonalization with overlap
     ethr =  4.23E-09,  avg # of iterations =  2.5

     total cpu time spent up to now is       53.2 secs

     total energy              =     -22.83973550 Ry
     Harris-Foulkes estimate   =     -22.83973550 Ry
     estimated scf accuracy    <       0.00000003 Ry

     iteration #  6     ecut=    40.00 Ry     beta=0.70
     Davidson diagonalization with overlap
     ethr =  3.35E-10,  avg # of iterations =  1.7

     total cpu time spent up to now is       62.4 secs

     End of self-consistent calculation

     Number of k-points >= 100: set verbosity='high' to print the bands.

     highest occupied, lowest unoccupied level (ev):     5.7605    6.4176

!    total energy              =     -22.83973550 Ry
     Harris-Foulkes estimate   =     -22.83973550 Ry
     estimated scf accuracy    <          4.8E-10 Ry

     The total energy is the sum of the following terms:

     one-electron contribution =       4.83593913 Ry
     hartree contribution      =       1.13870368 Ry
     xc contribution           =     -12.25698318 Ry
     ewald contribution        =     -16.55739513 Ry

     convergence has been achieved in   6 iterations

     Writing output data file si.save

     init_run     :      2.96s CPU      5.07s WALL (       1 calls)
     electrons    :     38.72s CPU     56.69s WALL (       1 calls)

     Called by init_run:
     wfcinit      :      2.00s CPU      3.68s WALL (       1 calls)
     potinit      :      0.04s CPU      0.05s WALL (       1 calls)

     Called by electrons:
     c_bands      :     32.53s CPU     47.75s WALL (       7 calls)
     sum_band     :      5.83s CPU      8.38s WALL (       7 calls)
     v_of_rho     :      0.16s CPU      0.22s WALL (       7 calls)
     newd         :      0.26s CPU      0.45s WALL (       7 calls)
     mix_rho      :      0.00s CPU      0.01s WALL (       7 calls)

     Called by c_bands:
     init_us_2    :      1.52s CPU      2.26s WALL (    2175 calls)
     cegterg      :     28.55s CPU     42.56s WALL (    1015 calls)

     Called by sum_band:
     sum_band:bec :      0.04s CPU      0.02s WALL (    1015 calls)
     addusdens    :      0.28s CPU      0.44s WALL (       7 calls)

     Called by *egterg:
     h_psi        :     24.80s CPU     37.89s WALL (    3460 calls)
     s_psi        :      1.79s CPU      2.44s WALL (    3460 calls)
     g_psi        :      0.10s CPU      0.20s WALL (    2300 calls)
     cdiaghg      :      0.53s CPU      0.75s WALL (    3170 calls)

     Called by h_psi:
     h_psi:pot    :     24.72s CPU     37.73s WALL (    3460 calls)
     h_psi:calbec :      1.83s CPU      2.82s WALL (    3460 calls)
     vloc_psi     :     21.12s CPU     32.34s WALL (    3460 calls)
     add_vuspsi   :      1.71s CPU      2.49s WALL (    3460 calls)

     General routines
     calbec       :      2.42s CPU      3.82s WALL (    4475 calls)
     fft          :      0.06s CPU      0.12s WALL (      93 calls)
     fftw         :     23.16s CPU     35.18s WALL (   50658 calls)
     davcio       :      0.01s CPU      0.01s WALL (     145 calls)

     Parallel routines
     fft_scatter  :      0.85s CPU      1.27s WALL (   50751 calls)

     PWSCF        :  0m42.46s CPU     1m 2.86s WALL


   This run was terminated on:   8:26: 2  30May2021            

=------------------------------------------------------------------------------=
   JOB DONE.
=------------------------------------------------------------------------------=
