     Message from routine get_command_line:
     unexpected argument # 2     :-inp

     Program PWSCF v.6.0 starts on 30May2021 at  8:20:58 

     This program is part of the open-source Quantum ESPRESSO suite
     for quantum simulation of materials; please cite
         "P. Giannozzi et al., J. Phys.:Condens. Matter 21 395502 (2009);
          URL http://www.quantum-espresso.org", 
     in publications or presentations arising from this work. More details at
     http://www.quantum-espresso.org/quote

     Parallel version (MPI), running on     1 processors
     Waiting for input...
     Reading input from standard input

     Current dimensions of program PWSCF are:
     Max number of different atomic species (ntypx) = 10
     Max number of k-points (npk) =  40000
     Max angular momentum in pseudopotentials (lmaxx) =  3

     Subspace diagonalization in iterative solution of the eigenvalue problem:
     a serial algorithm will be used


     G-vector sticks info
     --------------------
     sticks:   dense  smooth     PW     G-vecs:    dense   smooth      PW
     Sum         595     595    361                 9577     9577    4381



     bravais-lattice index     =            2
     lattice parameter (alat)  =      10.4109  a.u.
     unit-cell volume          =     282.1019 (a.u.)^3
     number of atoms/cell      =            2
     number of atomic types    =            1
     number of electrons       =         8.00
     number of Kohn-Sham states=            8
     kinetic-energy cutoff     =      80.0000  Ry
     charge density cutoff     =     160.0000  Ry
     convergence threshold     =      1.0E-08
     mixing beta               =       0.7000
     number of iterations used =            8  plain     mixing
     Exchange-correlation      = PBE ( 1  4  3  4 0 0)

     celldm(1)=  10.410909  celldm(2)=   0.000000  celldm(3)=   0.000000
     celldm(4)=   0.000000  celldm(5)=   0.000000  celldm(6)=   0.000000

     crystal axes: (cart. coord. in units of alat)
               a(1) = (  -0.500000   0.000000   0.500000 )  
               a(2) = (   0.000000   0.500000   0.500000 )  
               a(3) = (  -0.500000   0.500000   0.000000 )  

     reciprocal axes: (cart. coord. in units 2 pi/alat)
               b(1) = ( -1.000000 -1.000000  1.000000 )  
               b(2) = (  1.000000  1.000000  1.000000 )  
               b(3) = ( -1.000000  1.000000 -1.000000 )  


     PseudoPot. # 1 for Si read from file:
     /home/maestro/Downloads/SSSP_efficiency_pseudos/Si.pbe-n-rrkjus_psl.1.0.0.UPF
     MD5 check sum: 0b0bb1205258b0d07b9f9672cf965d36
     Pseudo is Ultrasoft + core correction, Zval =  4.0
     Generated using "atomic" code by A. Dal Corso  v.5.1
     Using radial grid of 1141 points,  6 beta functions with: 
                l(1) =   0
                l(2) =   0
                l(3) =   1
                l(4) =   1
                l(5) =   2
                l(6) =   2
     Q(r) pseudized with 0 coefficients 


     atomic species   valence    mass     pseudopotential
        Si             4.00    28.08550     Si( 1.00)

     24 Sym. Ops. (no inversion) found
          (note: 24 additional sym.ops. were found but ignored
           their fractional translations are incommensurate with FFT grid)


   Cartesian axes

     site n.     atom                  positions (alat units)
         1           Si  tau(   1) = (   0.0000000   0.0000000   0.0000000  )
         2           Si  tau(   2) = (   0.2500000   0.2500000   0.2500000  )

     number of k points=    29
                       cart. coord. in units 2pi/alat
        k(    1) = (   0.0000000   0.0000000   0.0000000), wk =   0.0039062
        k(    2) = (  -0.1250000   0.1250000  -0.1250000), wk =   0.0312500
        k(    3) = (  -0.2500000   0.2500000  -0.2500000), wk =   0.0312500
        k(    4) = (  -0.3750000   0.3750000  -0.3750000), wk =   0.0312500
        k(    5) = (   0.5000000  -0.5000000   0.5000000), wk =   0.0156250
        k(    6) = (   0.0000000   0.2500000   0.0000000), wk =   0.0234375
        k(    7) = (  -0.1250000   0.3750000  -0.1250000), wk =   0.0937500
        k(    8) = (  -0.2500000   0.5000000  -0.2500000), wk =   0.0937500
        k(    9) = (   0.6250000  -0.3750000   0.6250000), wk =   0.0937500
        k(   10) = (   0.5000000  -0.2500000   0.5000000), wk =   0.0937500
        k(   11) = (   0.3750000  -0.1250000   0.3750000), wk =   0.0937500
        k(   12) = (   0.2500000   0.0000000   0.2500000), wk =   0.0468750
        k(   13) = (   0.0000000   0.5000000   0.0000000), wk =   0.0234375
        k(   14) = (  -0.1250000   0.6250000  -0.1250000), wk =   0.0937500
        k(   15) = (   0.7500000  -0.2500000   0.7500000), wk =   0.0937500
        k(   16) = (   0.6250000  -0.1250000   0.6250000), wk =   0.0937500
        k(   17) = (   0.5000000   0.0000000   0.5000000), wk =   0.0468750
        k(   18) = (   0.0000000   0.7500000   0.0000000), wk =   0.0234375
        k(   19) = (   0.8750000  -0.1250000   0.8750000), wk =   0.0937500
        k(   20) = (   0.7500000   0.0000000   0.7500000), wk =   0.0468750
        k(   21) = (   0.0000000  -1.0000000   0.0000000), wk =   0.0117188
        k(   22) = (  -0.2500000   0.5000000   0.0000000), wk =   0.0937500
        k(   23) = (   0.6250000  -0.3750000   0.8750000), wk =   0.1875000
        k(   24) = (   0.5000000  -0.2500000   0.7500000), wk =   0.0937500
        k(   25) = (   0.7500000  -0.2500000   1.0000000), wk =   0.0937500
        k(   26) = (   0.6250000  -0.1250000   0.8750000), wk =   0.1875000
        k(   27) = (   0.5000000   0.0000000   0.7500000), wk =   0.0937500
        k(   28) = (  -0.2500000  -1.0000000   0.0000000), wk =   0.0468750
        k(   29) = (  -0.5000000  -1.0000000   0.0000000), wk =   0.0234375

     Dense  grid:     9577 G-vectors     FFT dimensions: (  30,  30,  30)

     Estimated max dynamical RAM per process >      23.41Mb

     Check: negative/imaginary core charge=   -0.000003    0.000000

     Initial potential from superposition of free atoms

     starting charge    7.99888, renormalised to    8.00000
     Starting wfc are    8 randomized atomic wfcs

     total cpu time spent up to now is        3.3 secs

     per-process dynamical memory:    24.1 Mb

     Self-consistent Calculation

     iteration #  1     ecut=    80.00 Ry     beta=0.70
     Davidson diagonalization with overlap
     ethr =  1.00E-02,  avg # of iterations =  3.6

     Threshold (ethr) on eigenvalues was too large:
     Diagonalizing with lowered threshold

     Davidson diagonalization with overlap
     ethr =  6.66E-04,  avg # of iterations =  1.2

     total cpu time spent up to now is       10.6 secs

     total energy              =     -22.83749891 Ry
     Harris-Foulkes estimate   =     -22.84945534 Ry
     estimated scf accuracy    <       0.05256379 Ry

     iteration #  2     ecut=    80.00 Ry     beta=0.70
     Davidson diagonalization with overlap
     ethr =  6.57E-04,  avg # of iterations =  1.0

     total cpu time spent up to now is       13.6 secs

     total energy              =     -22.83945674 Ry
     Harris-Foulkes estimate   =     -22.83957322 Ry
     estimated scf accuracy    <       0.00218757 Ry

     iteration #  3     ecut=    80.00 Ry     beta=0.70
     Davidson diagonalization with overlap
     ethr =  2.73E-05,  avg # of iterations =  2.7

     total cpu time spent up to now is       16.9 secs

     total energy              =     -22.83957026 Ry
     Harris-Foulkes estimate   =     -22.83956736 Ry
     estimated scf accuracy    <       0.00004010 Ry

     iteration #  4     ecut=    80.00 Ry     beta=0.70
     Davidson diagonalization with overlap
     ethr =  5.01E-07,  avg # of iterations =  2.8

     total cpu time spent up to now is       20.1 secs

     total energy              =     -22.83958160 Ry
     Harris-Foulkes estimate   =     -22.83958147 Ry
     estimated scf accuracy    <       0.00000027 Ry

     iteration #  5     ecut=    80.00 Ry     beta=0.70
     Davidson diagonalization with overlap
     ethr =  3.32E-09,  avg # of iterations =  2.7

     total cpu time spent up to now is       22.7 secs

     total energy              =     -22.83958176 Ry
     Harris-Foulkes estimate   =     -22.83958176 Ry
     estimated scf accuracy    <       0.00000002 Ry

     iteration #  6     ecut=    80.00 Ry     beta=0.70
     Davidson diagonalization with overlap
     ethr =  2.14E-10,  avg # of iterations =  1.9

     total cpu time spent up to now is       25.1 secs

     End of self-consistent calculation

          k = 0.0000 0.0000 0.0000 (  3479 PWs)   bands (ev):

    -5.9087   5.7620   5.7620   5.7620   8.3058   8.3058   8.3058   8.6352

          k =-0.1250 0.1250-0.1250 (  3416 PWs)   bands (ev):

    -5.7121   4.1730   5.4851   5.4851   8.1295   8.7130   8.7130  10.1040

          k =-0.2500 0.2500-0.2500 (  3398 PWs)   bands (ev):

    -5.1395   1.9095   5.0293   5.0293   7.6399   9.2316   9.2316  12.3284

          k =-0.3750 0.3750-0.3750 (  3416 PWs)   bands (ev):

    -4.2851  -0.0387   4.7101   4.7101   7.2757   9.2146   9.2146  13.5478

          k = 0.5000-0.5000 0.5000 (  3426 PWs)   bands (ev):

    -3.6848  -1.0120   4.6005   4.6005   7.1477   9.1193   9.1193  13.4383

          k = 0.0000 0.2500 0.0000 (  3431 PWs)   bands (ev):

    -5.6458   4.3842   4.9936   4.9936   7.7767   9.3969   9.3969   9.7780

          k =-0.1250 0.3750-0.1250 (  3417 PWs)   bands (ev):

    -5.1949   2.5667   4.4998   4.5512   7.9001   9.2889  10.1443  10.4859

          k =-0.2500 0.5000-0.2500 (  3428 PWs)   bands (ev):

    -4.4135   0.5842   3.9753   4.2375   7.9634   9.2995  10.1780  11.1744

          k = 0.6250-0.3750 0.6250 (  3399 PWs)   bands (ev):

    -3.5977  -0.8126   3.5466   4.2569   7.8846   9.2245   9.8467  12.9973

          k = 0.5000-0.2500 0.5000 (  3410 PWs)   bands (ev):

    -3.8275  -0.4609   3.3780   4.5391   8.0160   9.3552   9.6187  13.4909

          k = 0.3750-0.1250 0.3750 (  3417 PWs)   bands (ev):

    -4.7069   1.2173   3.5361   5.0107   8.3427   9.4021   9.5759  11.8768

          k = 0.2500 0.0000 0.2500 (  3435 PWs)   bands (ev):

    -5.3886   3.0894   4.2093   5.4740   8.6401   8.8497   9.0627  11.0592

          k = 0.0000 0.5000 0.0000 (  3399 PWs)   bands (ev):

    -4.8668   2.2341   3.9509   3.9509   6.9326   8.8951  11.3791  11.3791

          k =-0.1250 0.6250-0.1250 (  3414 PWs)   bands (ev):

    -4.1845   0.8644   3.1997   3.6426   7.1515   8.6711  11.5754  11.9027

          k = 0.7500-0.2500 0.7500 (  3401 PWs)   bands (ev):

    -3.3014  -0.5097   2.3674   3.6432   7.3239  10.1762  11.3028  11.5938

          k = 0.6250-0.1250 0.6250 (  3412 PWs)   bands (ev):

    -3.1114  -0.7512   1.9313   3.9474   7.6264  11.0955  11.1625  12.5672

          k = 0.5000 0.0000 0.5000 (  3418 PWs)   bands (ev):

    -3.9464   0.3560   2.1725   4.4818   8.1812  10.4626  10.7969  11.6863

          k = 0.0000 0.7500 0.0000 (  3407 PWs)   bands (ev):

    -3.6036   0.0754   3.2586   3.2586   6.4471   7.3739  13.5871  13.5871

          k = 0.8750-0.1250 0.8750 (  3402 PWs)   bands (ev):

    -2.7430  -0.9720   2.4769   3.1842   6.7291   7.7645  13.8358  13.8559

          k = 0.7500 0.0000 0.7500 (  3414 PWs)   bands (ev):

    -2.3354  -1.3457   1.6587   3.4312   7.0257   9.8571  13.0433  13.6727

          k = 0.0000-1.0000 0.0000 (  3378 PWs)   bands (ev):

    -1.9200  -1.9200   3.0210   3.0210   6.5556   6.5557  15.4990  15.4990

          k =-0.2500 0.5000 0.0000 (  3426 PWs)   bands (ev):

    -4.6298   1.5071   3.1670   4.3860   8.1983   9.4975   9.9802  11.1381

          k = 0.6250-0.3750 0.8750 (  3414 PWs)   bands (ev):

    -3.7800   0.0203   2.5671   3.9123   8.6077   9.2645  10.6952  11.5821

          k = 0.5000-0.2500 0.7500 (  3390 PWs)   bands (ev):

    -3.1643  -0.8734   2.4332   3.6958   8.7345   8.9243  11.5381  12.7834

          k = 0.7500-0.2500 1.0000 (  3413 PWs)   bands (ev):

    -3.4157  -0.1360   2.5443   3.1250   7.7254   8.4324  11.3732  13.5402

          k = 0.6250-0.1250 0.8750 (  3391 PWs)   bands (ev):

    -2.5839  -1.0646   1.8823   2.9338   8.1627  10.0197  10.9044  13.0170

          k = 0.5000 0.0000 0.7500 (  3405 PWs)   bands (ev):

    -2.9203  -0.7123   1.7244   3.2912   8.6205  10.2450  10.8757  12.6532

          k =-0.2500-1.0000 0.0000 (  3386 PWs)   bands (ev):

    -1.8505  -1.8505   2.4958   2.4958   7.7631   7.7632  13.4107  13.4109

          k =-0.5000-1.0000 0.0000 (  3400 PWs)   bands (ev):

    -1.7747  -1.7747   2.0883   2.0883  10.0384  10.0385  10.6114  10.6116

     highest occupied, lowest unoccupied level (ev):     5.7620    6.4471

!    total energy              =     -22.83958176 Ry
     Harris-Foulkes estimate   =     -22.83958176 Ry
     estimated scf accuracy    <          1.5E-09 Ry

     The total energy is the sum of the following terms:

     one-electron contribution =       4.83561837 Ry
     hartree contribution      =       1.13963888 Ry
     xc contribution           =     -12.25744389 Ry
     ewald contribution        =     -16.55739513 Ry

     convergence has been achieved in   6 iterations

     Writing output data file si.save

     init_run     :      1.80s CPU      2.67s WALL (       1 calls)
     electrons    :     14.80s CPU     21.82s WALL (       1 calls)

     Called by init_run:
     wfcinit      :      0.75s CPU      1.29s WALL (       1 calls)
     potinit      :      0.03s CPU      0.03s WALL (       1 calls)

     Called by electrons:
     c_bands      :     12.29s CPU     18.08s WALL (       7 calls)
     sum_band     :      2.19s CPU      3.17s WALL (       7 calls)
     v_of_rho     :      0.15s CPU      0.19s WALL (       7 calls)
     newd         :      0.24s CPU      0.44s WALL (       7 calls)
     mix_rho      :      0.01s CPU      0.01s WALL (       7 calls)

     Called by c_bands:
     init_us_2    :      0.94s CPU      1.37s WALL (     435 calls)
     cegterg      :     10.02s CPU     14.95s WALL (     203 calls)

     Called by sum_band:
     sum_band:bec :      0.00s CPU      0.01s WALL (     203 calls)
     addusdens    :      0.28s CPU      0.46s WALL (       7 calls)

     Called by *egterg:
     h_psi        :      7.56s CPU     11.44s WALL (     693 calls)
     s_psi        :      1.02s CPU      1.48s WALL (     693 calls)
     g_psi        :      0.06s CPU      0.12s WALL (     461 calls)
     cdiaghg      :      0.10s CPU      0.14s WALL (     635 calls)

     Called by h_psi:
     h_psi:pot    :      7.48s CPU     11.34s WALL (     693 calls)
     h_psi:calbec :      1.18s CPU      1.67s WALL (     693 calls)
     vloc_psi     :      5.35s CPU      8.28s WALL (     693 calls)
     add_vuspsi   :      0.94s CPU      1.36s WALL (     693 calls)

     General routines
     calbec       :      1.59s CPU      2.22s WALL (     896 calls)
     fft          :      0.06s CPU      0.08s WALL (      93 calls)
     fftw         :      5.79s CPU      9.04s WALL (   10088 calls)
     davcio       :      0.01s CPU      0.01s WALL (      29 calls)

     Parallel routines
     fft_scatter  :      0.23s CPU      0.36s WALL (   10181 calls)

     PWSCF        :    17.23s CPU        25.22s WALL


   This run was terminated on:   8:21:23  30May2021            

=------------------------------------------------------------------------------=
   JOB DONE.
=------------------------------------------------------------------------------=
